# vtk DataFile Version 2.0
particles
ASCII
DATASET UNSTRUCTURED_GRID
POINTS 125 floats
45.0 45.0 45.0
43.22922281951794 45.23486668274471 43.817513671112906
47.84771378304752 45.191200204641866 45.410920557109264
43.360627006784114 46.07734312664916 44.36195684238031
46.93920287497916 44.62257334758209 43.93600542412685
46.07826903706509 44.078093825483435 43.95740741634242
45.170945945647574 44.38765940624482 43.6423313676616
46.84959392197694 43.888855016152604 44.6166060894067
45.016967491900125 46.341228553313236 45.67230359373035
45.46836320631298 45.70603377780055 46.308984681107006
44.29985998820371 43.88246896812085 44.06447398540941
44.027637514047626 46.159093547780294 45.82729323387001
43.481217230103724 43.951641686126976 45.78324197888874
43.301766484716595 45.539562903156664 46.127188412020374
46.12542218291354 46.21242955140638 45.675534527811934
43.13848986145568 46.13233936855661 45.33631556959453
45.96920080384573 45.01482398657033 43.59404130598996
44.480416386957415 45.461653497854414 46.41386195751633
45.053334980679175 45.45253490626053 43.58243353164558
47.54362463086879 44.25045917591997 45.2482572077722
42.825896921636925 43.95862932850615 44.90091164744065
45.08552183955002 44.614325033589054 46.460521598225796
44.10157524802156 45.73424857174116 43.78198297477496
47.160911650184985 44.766244146151465 46.01657247182848
46.66556771808184 43.94005730248705 45.665676197640195
45.58261358397743 46.45609666784858 44.849584479321635
42.802477097986284 44.66342653481357 45.98577709844355
42.46430200895884 45.69194816536658 44.58837259112532
46.44021492368268 45.446449329135916 46.24170283222206
45.97352901822545 43.57935092749446 45.02642608485341
46.563545830220995 46.2417021435878 44.74254043365832
44.871415511774586 46.241623840420374 44.177957001337404
47.098182754395516 45.873684213256944 45.610568448503244
43.816938855508596 44.71132920470245 46.363119474452944
42.45398900041515 44.71374445607459 44.254592838323276
44.15712170678593 44.753922459736884 43.588899932154916
47.46132836835701 45.77453401381251 44.68289540476478
44.16554677303769 46.4318114752444 44.872935244071684
46.76364597414501 45.61947502644946 43.97723849417679
44.46259203007405 43.942330442658886 46.046791123531236
43.776211580788186 43.62814260621482 44.88031080102495
46.068878894263925 44.482900617034716 46.31170061056555
45.23888187896757 43.66224552104336 44.33460855406621
45.82817133846132 45.98177340783128 43.96264852078872
44.725850373515314 43.51031478192179 45.17970452229888
47.761274069061926 44.8443689480258 44.46479372179117
42.395378699719714 45.495316426488294 45.58120728059917
45.4729968635258 43.78888375934271 45.86782798463187
43.328155047456036 44.250130282491014 44.00555825975606
42.105408288196344 44.61612883416244 45.19990202012997
46.85962401356059 44.98459753567063 45.031193666953676
45.94275497590262 44.53968420022314 45.31746866272952
44.037841534359906 44.58221828810259 44.7294307943171
44.68584762263864 45.32202953208778 44.53127712252938
43.87378619941248 45.500301795442695 45.09070585428111
45.03456052316282 44.460054301221746 44.90215616472992
45.996491259728245 45.208055352909604 44.57551833043444
45.335543410981415 45.37798523637708 45.37296167571756
44.45304065328165 44.86733770980907 45.60716518843311
45.01050286983493 45.00038407277245 45.00579758525289
44.32823457990099 45.17218031902653 46.88994866905297
46.78576273896404 44.542232814638524 44.26144293383548
43.28770308016769 44.12680225075768 45.63080522526609
45.206275835592514 44.66973716659842 46.97273302464295
44.50384810434697 45.53149550354648 43.14746525712478
46.453440917083476 43.66735671886076 44.680958337291116
46.14668755728376 43.98057975961041 43.728601174860316
46.08835433167149 45.576838869243744 46.569129951149236
43.8084347721113 43.79483363781725 43.913786649224534
46.51921176734945 46.03713853784812 45.74251191156226
46.65487993250346 45.51142224712841 44.04454096094359
43.79262422463822 45.84131300757727 46.36825952941314
43.59256195014389 43.55587996653976 44.86191794526468
46.87775492453714 44.38501700853429 45.24868920022362
46.948166853398064 45.36412869590832 44.99793875212285
43.93291231954103 46.109816618767496 43.734543540145765
45.45852265416288 46.84687967570323 44.456902676918716
43.59125662047964 46.37176007530629 44.64488030526894
43.28499000750321 45.92415748963263 45.48744287455776
43.702034932674096 45.0123050726613 43.475751807707766
43.246250807419855 45.54456818160616 44.19514619296159
45.14401753453072 45.758013988923324 46.84745246306257
42.98697148079603 45.07504343044451 45.044596647728724
44.93100877055487 46.94370527772994 45.407161930161536
45.90644381444502 46.726474345391914 45.34904132805093
45.742239372082004 43.14390656419748 45.20791288657712
46.74036072130018 45.08657362412364 45.96239646195147
46.14340048762754 44.573969759902496 46.587711804424075
43.986025267719754 46.63733458356958 45.52984243247096
43.79606332387813 44.392982619176564 46.506008099923804
46.333296854906685 43.72053429800705 45.77433875185544
45.63637154961571 43.26761250866083 44.21740170848379
44.0111702448616 43.43908131552685 45.82548636955997
46.013151173267765 46.25934974584591 43.86282276313132
44.6106105989263 46.460296166980804 46.30678766914963
43.20184180419891 44.54510373820503 44.21707362745211
44.9715965608309 46.43018190618849 43.62838826899929
44.46936515582382 43.05177243574431 45.01717227054823
44.64521829765127 43.26210646731383 44.051432621000416
45.518794958724826 45.67448424108782 43.210588049448646
44.597371331831994 43.79570951886541 46.5713168275654
45.61342488593172 46.41644133052285 46.25646068505169
44.98601871291692 43.17838190913476 45.86964832510428
44.455900249970924 46.815788283572886 44.405171228885564
46.16417221107463 44.92470477155912 43.39606502765349
45.595316637618794 43.73994969471188 46.45188229220733
45.21335468611264 43.79489940400248 43.418516902956696
46.52165331410006 46.232743491943836 44.72942655712076
43.254162782254866 45.07102420355269 46.00910231666418
45.24189029636594 44.72464822385929 43.043775309228224
44.35887800860645 44.29073853394149 43.241621454043994
45.535060054669074 44.119584687470805 44.739953977617496
44.944344040618766 44.988323845147086 45.08659066129729
44.67490906680716 45.598860815469074 44.17627921778511
43.95932526316236 45.45199910958646 44.89746363563783
46.0269168142063 45.00949935033184 44.835154304067146
44.712099093652824 45.95066668499888 45.3434829987978
44.10403847674615 44.71215923748067 45.59192101795786
44.25719378946103 44.576916079190575 44.4631830061421
45.52177879700761 45.865755287063465 44.662667034931694
44.92067206442485 45.06548712721447 46.09014230188247
45.39279091742358 44.864498908464014 44.064772778758076
45.64235617597203 45.57159859259553 45.61118596429111
45.64201435426769 44.45783458909431 45.678179899604544
44.72834106510195 43.97489634486704 45.317324287286944
POINT_DATA 125
VECTORS velocity float
0.0 0.0 0.0
0.0 0.0 0.0
0.0 0.0 0.0
0.0 0.0 0.0
0.0 0.0 0.0
0.0 0.0 0.0
0.0 0.0 0.0
0.0 0.0 0.0
0.0 0.0 0.0
0.0 0.0 0.0
0.0 0.0 0.0
0.0 0.0 0.0
0.0 0.0 0.0
0.0 0.0 0.0
0.0 0.0 0.0
0.0 0.0 0.0
0.0 0.0 0.0
0.0 0.0 0.0
0.0 0.0 0.0
0.0 0.0 0.0
0.0 0.0 0.0
0.0 0.0 0.0
0.0 0.0 0.0
0.0 0.0 0.0
0.0 0.0 0.0
0.0 0.0 0.0
0.0 0.0 0.0
0.0 0.0 0.0
0.0 0.0 0.0
0.0 0.0 0.0
0.0 0.0 0.0
0.0 0.0 0.0
0.0 0.0 0.0
0.0 0.0 0.0
0.0 0.0 0.0
0.0 0.0 0.0
0.0 0.0 0.0
0.0 0.0 0.0
0.0 0.0 0.0
0.0 0.0 0.0
0.0 0.0 0.0
0.0 0.0 0.0
0.0 0.0 0.0
0.0 0.0 0.0
0.0 0.0 0.0
0.0 0.0 0.0
0.0 0.0 0.0
0.0 0.0 0.0
0.0 0.0 0.0
0.0 0.0 0.0
0.0 0.0 0.0
0.0 0.0 0.0
0.0 0.0 0.0
0.0 0.0 0.0
0.0 0.0 0.0
0.0 0.0 0.0
0.0 0.0 0.0
0.0 0.0 0.0
0.0 0.0 0.0
0.0 0.0 0.0
0.0 0.0 0.0
0.0 0.0 0.0
0.0 0.0 0.0
0.0 0.0 0.0
0.0 0.0 0.0
0.0 0.0 0.0
0.0 0.0 0.0
0.0 0.0 0.0
0.0 0.0 0.0
0.0 0.0 0.0
0.0 0.0 0.0
0.0 0.0 0.0
0.0 0.0 0.0
0.0 0.0 0.0
0.0 0.0 0.0
0.0 0.0 0.0
0.0 0.0 0.0
0.0 0.0 0.0
0.0 0.0 0.0
0.0 0.0 0.0
0.0 0.0 0.0
0.0 0.0 0.0
0.0 0.0 0.0
0.0 0.0 0.0
0.0 0.0 0.0
0.0 0.0 0.0
0.0 0.0 0.0
0.0 0.0 0.0
0.0 0.0 0.0
0.0 0.0 0.0
0.0 0.0 0.0
0.0 0.0 0.0
0.0 0.0 0.0
0.0 0.0 0.0
0.0 0.0 0.0
0.0 0.0 0.0
0.0 0.0 0.0
0.0 0.0 0.0
0.0 0.0 0.0
0.0 0.0 0.0
0.0 0.0 0.0
0.0 0.0 0.0
0.0 0.0 0.0
0.0 0.0 0.0
0.0 0.0 0.0
0.0 0.0 0.0
0.0 0.0 0.0
0.0 0.0 0.0
0.0 0.0 0.0
0.0 0.0 0.0
0.0 0.0 0.0
0.0 0.0 0.0
0.0 0.0 0.0
0.0 0.0 0.0
0.0 0.0 0.0
0.0 0.0 0.0
0.0 0.0 0.0
0.0 0.0 0.0
0.0 0.0 0.0
0.0 0.0 0.0
0.0 0.0 0.0
0.0 0.0 0.0
0.0 0.0 0.0
0.0 0.0 0.0
0.0 0.0 0.0

SCALARS type float 1
LOOKUP_TABLE default
0
1
1
1
1
1
1
1
1
1
1
1
1
1
1
1
1
1
1
1
1
1
1
1
1
1
1
1
1
1
1
1
1
1
1
1
1
1
1
1
1
1
1
1
1
1
1
1
1
1
1
1
1
1
1
1
1
1
1
0
1
1
1
1
1
1
1
1
1
1
1
1
1
1
1
1
1
1
1
1
1
1
1
1
1
1
1
1
1
1
1
1
1
1
1
1
1
1
1
1
1
1
1
1
1
1
1
1
1
1
1
1
1
1
1
1
1
1
1
1
1
1
1
1
1