# vtk DataFile Version 2.0
particles
ASCII
DATASET UNSTRUCTURED_GRID
POINTS 59 floats
45.0 45.0 45.0
43.22922281951794 45.23486668274471 43.817513671112906
47.84771378304752 45.191200204641866 45.410920557109264
43.360627006784114 46.07734312664916 44.36195684238031
46.93920287497916 44.62257334758209 43.93600542412685
46.07826903706509 44.078093825483435 43.95740741634242
45.170945945647574 44.38765940624482 43.6423313676616
46.84959392197694 43.888855016152604 44.6166060894067
45.016967491900125 46.341228553313236 45.67230359373035
45.46836320631298 45.70603377780055 46.308984681107006
44.29985998820371 43.88246896812085 44.06447398540941
44.027637514047626 46.159093547780294 45.82729323387001
43.481217230103724 43.951641686126976 45.78324197888874
43.301766484716595 45.539562903156664 46.127188412020374
46.12542218291354 46.21242955140638 45.675534527811934
43.13848986145568 46.13233936855661 45.33631556959453
45.96920080384573 45.01482398657033 43.59404130598996
44.480416386957415 45.461653497854414 46.41386195751633
45.053334980679175 45.45253490626053 43.58243353164558
47.54362463086879 44.25045917591997 45.2482572077722
42.825896921636925 43.95862932850615 44.90091164744065
45.08552183955002 44.614325033589054 46.460521598225796
44.10157524802156 45.73424857174116 43.78198297477496
47.160911650184985 44.766244146151465 46.01657247182848
46.66556771808184 43.94005730248705 45.665676197640195
45.58261358397743 46.45609666784858 44.849584479321635
42.802477097986284 44.66342653481357 45.98577709844355
42.46430200895884 45.69194816536658 44.58837259112532
46.44021492368268 45.446449329135916 46.24170283222206
45.97352901822545 43.57935092749446 45.02642608485341
46.563545830220995 46.2417021435878 44.74254043365832
44.871415511774586 46.241623840420374 44.177957001337404
47.098182754395516 45.873684213256944 45.610568448503244
43.816938855508596 44.71132920470245 46.363119474452944
42.45398900041515 44.71374445607459 44.254592838323276
44.15712170678593 44.753922459736884 43.588899932154916
47.46132836835701 45.77453401381251 44.68289540476478
44.16554677303769 46.4318114752444 44.872935244071684
46.76364597414501 45.61947502644946 43.97723849417679
44.46259203007405 43.942330442658886 46.046791123531236
43.776211580788186 43.62814260621482 44.88031080102495
46.068878894263925 44.482900617034716 46.31170061056555
45.23888187896757 43.66224552104336 44.33460855406621
45.82817133846132 45.98177340783128 43.96264852078872
44.725850373515314 43.51031478192179 45.17970452229888
47.761274069061926 44.8443689480258 44.46479372179117
42.395378699719714 45.495316426488294 45.58120728059917
45.4729968635258 43.78888375934271 45.86782798463187
43.328155047456036 44.250130282491014 44.00555825975606
42.105408288196344 44.61612883416244 45.19990202012997
46.85962401356059 44.98459753567063 45.031193666953676
45.94275497590262 44.53968420022314 45.31746866272952
44.037841534359906 44.58221828810259 44.7294307943171
44.68584762263864 45.32202953208778 44.53127712252938
43.87378619941248 45.500301795442695 45.09070585428111
45.03456052316282 44.460054301221746 44.90215616472992
45.996491259728245 45.208055352909604 44.57551833043444
45.335543410981415 45.37798523637708 45.37296167571756
44.45304065328165 44.86733770980907 45.60716518843311
POINT_DATA 59
VECTORS velocity float
0.0 0.0 0.0
0.0 0.0 0.0
0.0 0.0 0.0
0.0 0.0 0.0
0.0 0.0 0.0
0.0 0.0 0.0
0.0 0.0 0.0
0.0 0.0 0.0
0.0 0.0 0.0
0.0 0.0 0.0
0.0 0.0 0.0
0.0 0.0 0.0
0.0 0.0 0.0
0.0 0.0 0.0
0.0 0.0 0.0
0.0 0.0 0.0
0.0 0.0 0.0
0.0 0.0 0.0
0.0 0.0 0.0
0.0 0.0 0.0
0.0 0.0 0.0
0.0 0.0 0.0
0.0 0.0 0.0
0.0 0.0 0.0
0.0 0.0 0.0
0.0 0.0 0.0
0.0 0.0 0.0
0.0 0.0 0.0
0.0 0.0 0.0
0.0 0.0 0.0
0.0 0.0 0.0
0.0 0.0 0.0
0.0 0.0 0.0
0.0 0.0 0.0
0.0 0.0 0.0
0.0 0.0 0.0
0.0 0.0 0.0
0.0 0.0 0.0
0.0 0.0 0.0
0.0 0.0 0.0
0.0 0.0 0.0
0.0 0.0 0.0
0.0 0.0 0.0
0.0 0.0 0.0
0.0 0.0 0.0
0.0 0.0 0.0
0.0 0.0 0.0
0.0 0.0 0.0
0.0 0.0 0.0
0.0 0.0 0.0
0.0 0.0 0.0
0.0 0.0 0.0
0.0 0.0 0.0
0.0 0.0 0.0
0.0 0.0 0.0
0.0 0.0 0.0
0.0 0.0 0.0
0.0 0.0 0.0
0.0 0.0 0.0

SCALARS type float 1
LOOKUP_TABLE default
0
1
1
1
1
1
1
1
1
1
1
1
1
1
1
1
1
1
1
1
1
1
1
1
1
1
1
1
1
1
1
1
1
1
1
1
1
1
1
1
1
1
1
1
1
1
1
1
1
1
1
1
1
1
1
1
1
1
1